<?xml version="1.0" encoding="UTF-8"?>

<!-- generated on Sun Jan  3 12:37:36 2021 by Eclipse SUMO sumo Version 1.7.0
<configuration xmlns:xsi="http://www.w3.org/2001/XMLSchema-instance" xsi:noNamespaceSchemaLocation="http://sumo.dlr.de/xsd/sumoConfiguration.xsd">

    <input>
        <net-file value="/home/hjj/exp_test_v2/sumo_data/single_cross.net.xml"/>
        <route-files value="/home/hjj/exp_test_v2/sumo_data/routfile/time_vary_test.rou.xml"/>
        <additional-files value="/home/hjj/exp_test_v2/sumo_data/single_cross.add.xml"/>
    </input>

    <output>
        <tripinfo-output value="tripinfo.xml"/>
    </output>

    <time>
        <begin value="0"/>
    </time>

    <report>
        <verbose value="true"/>
        <no-warnings value="true"/>
        <duration-log.statistics value="true"/>
        <no-step-log value="true"/>
    </report>

    <traci_server>
        <remote-port value="37155"/>
    </traci_server>

</configuration>
-->

<tripinfos xmlns:xsi="http://www.w3.org/2001/XMLSchema-instance" xsi:noNamespaceSchemaLocation="http://sumo.dlr.de/xsd/tripinfo_file.xsd">
    <tripinfo id="WE_5" depart="1.00" departLane="1i_0" departPos="5.10" departSpeed="0.00" departDelay="0.00" arrival="44.00" arrivalLane="2o_0" arrivalPos="189.60" arrivalSpeed="11.54" duration="43.00" routeLength="394.90" waitingTime="0.00" waitingCount="0" stopTime="0.00" timeLoss="8.08" rerouteNo="0" devices="tripinfo_WE_5" vType="typeStraight" speedFactor="0.83" vaporized=""/>
    <tripinfo id="WN_52" depart="33.00" departLane="1i_0" departPos="5.10" departSpeed="0.00" departDelay="0.00" arrival="74.00" arrivalLane="4o_1" arrivalPos="189.60" arrivalSpeed="13.77" duration="41.00" routeLength="393.45" waitingTime="0.00" waitingCount="0" stopTime="0.00" timeLoss="11.13" rerouteNo="0" devices="tripinfo_WN_52" vType="typeTurn" speedFactor="1.02" vaporized=""/>
    <tripinfo id="SW_2" depart="4.00" departLane="3i_0" departPos="5.10" departSpeed="0.00" departDelay="4.00" arrival="86.00" arrivalLane="1o_1" arrivalPos="189.60" arrivalSpeed="13.64" duration="82.00" routeLength="393.45" waitingTime="34.00" waitingCount="1" stopTime="0.00" timeLoss="52.17" rerouteNo="0" devices="tripinfo_SW_2" vType="typeTurn" speedFactor="1.01" vaporized=""/>
    <tripinfo id="NE_0" depart="0.00" departLane="4i_0" departPos="5.10" departSpeed="0.00" departDelay="0.00" arrival="87.00" arrivalLane="2o_1" arrivalPos="189.60" arrivalSpeed="13.70" duration="87.00" routeLength="393.45" waitingTime="38.00" waitingCount="1" stopTime="0.00" timeLoss="57.35" rerouteNo="0" devices="tripinfo_NE_0" vType="typeTurn" speedFactor="1.06" vaporized=""/>
    <tripinfo id="NE_3" depart="4.00" departLane="4i_0" departPos="5.10" departSpeed="0.00" departDelay="3.00" arrival="89.00" arrivalLane="2o_1" arrivalPos="189.60" arrivalSpeed="13.59" duration="85.00" routeLength="393.45" waitingTime="35.00" waitingCount="1" stopTime="0.00" timeLoss="55.53" rerouteNo="0" devices="tripinfo_NE_3" vType="typeTurn" speedFactor="1.08" vaporized=""/>
    <tripinfo id="SW_7" depart="14.00" departLane="3i_0" departPos="5.10" departSpeed="0.00" departDelay="12.00" arrival="89.00" arrivalLane="1o_1" arrivalPos="189.60" arrivalSpeed="11.98" duration="75.00" routeLength="393.45" waitingTime="25.00" waitingCount="1" stopTime="0.00" timeLoss="41.77" rerouteNo="0" devices="tripinfo_SW_7" vType="typeTurn" speedFactor="0.89" vaporized=""/>
    <tripinfo id="NE_10" depart="13.00" departLane="4i_0" departPos="5.10" departSpeed="0.00" departDelay="8.00" arrival="91.00" arrivalLane="2o_1" arrivalPos="189.60" arrivalSpeed="13.78" duration="78.00" routeLength="393.45" waitingTime="28.00" waitingCount="1" stopTime="0.00" timeLoss="48.38" rerouteNo="0" devices="tripinfo_NE_10" vType="typeTurn" speedFactor="1.09" vaporized=""/>
    <tripinfo id="SW_9" depart="24.00" departLane="3i_0" departPos="5.10" departSpeed="0.00" departDelay="21.00" arrival="92.00" arrivalLane="1o_1" arrivalPos="189.60" arrivalSpeed="11.60" duration="68.00" routeLength="393.45" waitingTime="15.00" waitingCount="1" stopTime="0.00" timeLoss="33.54" rerouteNo="0" devices="tripinfo_SW_9" vType="typeTurn" speedFactor="0.86" vaporized=""/>
    <tripinfo id="SW_12" depart="33.00" departLane="3i_0" departPos="5.10" departSpeed="0.00" departDelay="28.00" arrival="93.00" arrivalLane="1o_1" arrivalPos="189.60" arrivalSpeed="12.63" duration="60.00" routeLength="393.45" waitingTime="9.00" waitingCount="1" stopTime="0.00" timeLoss="30.99" rerouteNo="0" devices="tripinfo_SW_12" vType="typeTurn" speedFactor="1.05" vaporized=""/>
    <tripinfo id="NE_18" depart="23.00" departLane="4i_0" departPos="5.10" departSpeed="0.00" departDelay="13.00" arrival="94.00" arrivalLane="2o_1" arrivalPos="189.60" arrivalSpeed="12.84" duration="71.00" routeLength="393.45" waitingTime="20.00" waitingCount="1" stopTime="0.00" timeLoss="39.18" rerouteNo="0" devices="tripinfo_NE_18" vType="typeTurn" speedFactor="0.94" vaporized=""/>
    <tripinfo id="SW_13" depart="38.00" departLane="3i_0" departPos="5.10" departSpeed="0.00" departDelay="32.00" arrival="95.00" arrivalLane="1o_1" arrivalPos="189.60" arrivalSpeed="12.78" duration="57.00" routeLength="393.45" waitingTime="7.00" waitingCount="1" stopTime="0.00" timeLoss="27.97" rerouteNo="0" devices="tripinfo_SW_13" vType="typeTurn" speedFactor="1.12" vaporized=""/>
    <tripinfo id="NE_20" depart="32.00" departLane="4i_0" departPos="5.10" departSpeed="0.00" departDelay="21.00" arrival="95.00" arrivalLane="2o_1" arrivalPos="189.60" arrivalSpeed="13.88" duration="63.00" routeLength="393.45" waitingTime="12.00" waitingCount="1" stopTime="0.00" timeLoss="33.71" rerouteNo="0" devices="tripinfo_NE_20" vType="typeTurn" speedFactor="1.02" vaporized=""/>
    <tripinfo id="SW_17" depart="52.00" departLane="3i_0" departPos="5.10" departSpeed="0.00" departDelay="44.00" arrival="97.00" arrivalLane="1o_1" arrivalPos="189.60" arrivalSpeed="13.08" duration="45.00" routeLength="393.45" waitingTime="0.00" waitingCount="0" stopTime="0.00" timeLoss="13.55" rerouteNo="0" devices="tripinfo_SW_17" vType="typeTurn" speedFactor="0.94" vaporized=""/>
    <tripinfo id="NE_25" depart="41.00" departLane="4i_0" departPos="5.10" departSpeed="0.00" departDelay="27.00" arrival="99.00" arrivalLane="2o_1" arrivalPos="189.60" arrivalSpeed="12.10" duration="58.00" routeLength="393.45" waitingTime="4.00" waitingCount="1" stopTime="0.00" timeLoss="23.67" rerouteNo="0" devices="tripinfo_NE_25" vType="typeTurn" speedFactor="0.87" vaporized=""/>
    <tripinfo id="NE_31" depart="50.00" departLane="4i_0" departPos="5.10" departSpeed="0.00" departDelay="32.00" arrival="100.00" arrivalLane="2o_1" arrivalPos="189.60" arrivalSpeed="12.73" duration="50.00" routeLength="393.45" waitingTime="0.00" waitingCount="0" stopTime="0.00" timeLoss="20.89" rerouteNo="0" devices="tripinfo_NE_31" vType="typeTurn" speedFactor="1.15" vaporized=""/>
    <tripinfo id="NE_37" depart="63.00" departLane="4i_0" departPos="5.10" departSpeed="0.00" departDelay="42.00" arrival="102.00" arrivalLane="2o_1" arrivalPos="189.60" arrivalSpeed="13.69" duration="39.00" routeLength="393.45" waitingTime="1.00" waitingCount="1" stopTime="0.00" timeLoss="10.15" rerouteNo="0" devices="tripinfo_NE_37" vType="typeTurn" speedFactor="1.18" vaporized=""/>
    <tripinfo id="SW_28" depart="65.00" departLane="3i_0" departPos="5.10" departSpeed="0.00" departDelay="49.00" arrival="105.00" arrivalLane="1o_1" arrivalPos="189.60" arrivalSpeed="13.83" duration="40.00" routeLength="393.45" waitingTime="0.00" waitingCount="0" stopTime="0.00" timeLoss="10.73" rerouteNo="0" devices="tripinfo_SW_28" vType="typeTurn" speedFactor="1.13" vaporized=""/>
    <tripinfo id="SN_1" depart="0.00" departLane="3i_0" departPos="5.10" departSpeed="0.00" departDelay="0.00" arrival="117.00" arrivalLane="4o_0" arrivalPos="189.60" arrivalSpeed="12.70" duration="117.00" routeLength="394.90" waitingTime="69.00" waitingCount="1" stopTime="0.00" timeLoss="86.39" rerouteNo="0" devices="tripinfo_SN_1" vType="typeStraight" speedFactor="0.94" vaporized=""/>
    <tripinfo id="NS_6" depart="9.00" departLane="4i_0" departPos="5.10" departSpeed="0.00" departDelay="7.00" arrival="117.00" arrivalLane="3o_0" arrivalPos="189.60" arrivalSpeed="13.51" duration="108.00" routeLength="394.90" waitingTime="60.00" waitingCount="1" stopTime="0.00" timeLoss="78.77" rerouteNo="0" devices="tripinfo_NS_6" vType="typeStraight" speedFactor="1.05" vaporized=""/>
    <tripinfo id="SN_4" depart="9.00" departLane="3i_0" departPos="5.10" departSpeed="0.00" departDelay="8.00" arrival="119.00" arrivalLane="4o_0" arrivalPos="189.60" arrivalSpeed="13.82" duration="110.00" routeLength="394.90" waitingTime="60.00" waitingCount="1" stopTime="0.00" timeLoss="81.53" rerouteNo="0" devices="tripinfo_SN_4" vType="typeStraight" speedFactor="1.03" vaporized=""/>
    <tripinfo id="NS_14" depart="18.00" departLane="4i_0" departPos="5.10" departSpeed="0.00" departDelay="11.00" arrival="119.00" arrivalLane="3o_0" arrivalPos="189.60" arrivalSpeed="13.71" duration="101.00" routeLength="394.90" waitingTime="51.00" waitingCount="1" stopTime="0.00" timeLoss="71.43" rerouteNo="0" devices="tripinfo_NS_14" vType="typeStraight" speedFactor="0.99" vaporized=""/>
    <tripinfo id="NS_19" depart="27.00" departLane="4i_0" departPos="5.10" departSpeed="0.00" departDelay="16.00" arrival="120.00" arrivalLane="3o_0" arrivalPos="189.60" arrivalSpeed="13.65" duration="93.00" routeLength="394.90" waitingTime="44.00" waitingCount="1" stopTime="0.00" timeLoss="64.57" rerouteNo="0" devices="tripinfo_NS_19" vType="typeStraight" speedFactor="1.16" vaporized=""/>
    <tripinfo id="SN_8" depart="19.00" departLane="3i_0" departPos="5.10" departSpeed="0.00" departDelay="16.00" arrival="122.00" arrivalLane="4o_0" arrivalPos="189.60" arrivalSpeed="12.73" duration="103.00" routeLength="394.90" waitingTime="51.00" waitingCount="1" stopTime="0.00" timeLoss="71.81" rerouteNo="0" devices="tripinfo_SN_8" vType="typeStraight" speedFactor="0.94" vaporized=""/>
    <tripinfo id="SN_11" depart="29.00" departLane="3i_0" departPos="5.10" departSpeed="0.00" departDelay="24.00" arrival="123.00" arrivalLane="4o_0" arrivalPos="189.60" arrivalSpeed="13.65" duration="94.00" routeLength="394.90" waitingTime="45.00" waitingCount="1" stopTime="0.00" timeLoss="65.34" rerouteNo="0" devices="tripinfo_SN_11" vType="typeStraight" speedFactor="1.03" vaporized=""/>
    <tripinfo id="NS_23" depart="36.00" departLane="4i_0" departPos="5.10" departSpeed="0.00" departDelay="23.00" arrival="124.00" arrivalLane="3o_0" arrivalPos="189.60" arrivalSpeed="11.97" duration="88.00" routeLength="394.90" waitingTime="36.00" waitingCount="1" stopTime="0.00" timeLoss="55.34" rerouteNo="0" devices="tripinfo_NS_23" vType="typeStraight" speedFactor="0.89" vaporized=""/>
    <tripinfo id="NS_29" depart="46.00" departLane="4i_0" departPos="5.10" departSpeed="0.00" departDelay="29.00" arrival="125.00" arrivalLane="3o_0" arrivalPos="189.60" arrivalSpeed="12.69" duration="79.00" routeLength="394.90" waitingTime="27.00" waitingCount="1" stopTime="0.00" timeLoss="48.43" rerouteNo="0" devices="tripinfo_NS_29" vType="typeStraight" speedFactor="0.93" vaporized=""/>
    <tripinfo id="SN_15" depart="42.00" departLane="3i_0" departPos="5.10" departSpeed="0.00" departDelay="35.00" arrival="126.00" arrivalLane="4o_0" arrivalPos="189.60" arrivalSpeed="12.40" duration="84.00" routeLength="394.90" waitingTime="31.00" waitingCount="1" stopTime="0.00" timeLoss="52.47" rerouteNo="0" devices="tripinfo_SN_15" vType="typeStraight" speedFactor="0.93" vaporized=""/>
    <tripinfo id="NS_34" depart="54.00" departLane="4i_0" departPos="5.10" departSpeed="0.00" departDelay="34.00" arrival="127.00" arrivalLane="3o_0" arrivalPos="189.60" arrivalSpeed="13.47" duration="73.00" routeLength="394.90" waitingTime="22.00" waitingCount="1" stopTime="0.00" timeLoss="43.97" rerouteNo="0" devices="tripinfo_NS_34" vType="typeStraight" speedFactor="0.99" vaporized=""/>
    <tripinfo id="SN_16" depart="47.00" departLane="3i_0" departPos="5.10" departSpeed="0.00" departDelay="39.00" arrival="129.00" arrivalLane="4o_0" arrivalPos="189.60" arrivalSpeed="11.72" duration="82.00" routeLength="394.90" waitingTime="27.00" waitingCount="1" stopTime="0.00" timeLoss="48.78" rerouteNo="0" devices="tripinfo_SN_16" vType="typeStraight" speedFactor="0.88" vaporized=""/>
    <tripinfo id="NS_36" depart="59.00" departLane="4i_0" departPos="5.10" departSpeed="0.00" departDelay="38.00" arrival="129.00" arrivalLane="3o_0" arrivalPos="189.60" arrivalSpeed="13.17" duration="70.00" routeLength="394.90" waitingTime="19.00" waitingCount="1" stopTime="0.00" timeLoss="40.12" rerouteNo="0" devices="tripinfo_NS_36" vType="typeStraight" speedFactor="0.97" vaporized=""/>
    <tripinfo id="SN_21" depart="56.00" departLane="3i_0" departPos="5.10" departSpeed="0.00" departDelay="45.00" arrival="130.00" arrivalLane="4o_0" arrivalPos="189.60" arrivalSpeed="12.48" duration="74.00" routeLength="394.90" waitingTime="21.00" waitingCount="1" stopTime="0.00" timeLoss="45.36" rerouteNo="0" devices="tripinfo_SN_21" vType="typeStraight" speedFactor="1.01" vaporized=""/>
    <tripinfo id="NS_38" depart="69.00" departLane="4i_0" departPos="5.10" departSpeed="0.00" departDelay="47.00" arrival="130.00" arrivalLane="3o_0" arrivalPos="189.60" arrivalSpeed="13.44" duration="61.00" routeLength="394.90" waitingTime="11.00" waitingCount="1" stopTime="0.00" timeLoss="32.49" rerouteNo="0" devices="tripinfo_NS_38" vType="typeStraight" speedFactor="1.10" vaporized=""/>
    <tripinfo id="NS_40" depart="74.00" departLane="4i_0" departPos="5.10" departSpeed="0.00" departDelay="50.00" arrival="132.00" arrivalLane="3o_0" arrivalPos="189.60" arrivalSpeed="13.50" duration="58.00" routeLength="394.90" waitingTime="8.00" waitingCount="1" stopTime="0.00" timeLoss="29.10" rerouteNo="0" devices="tripinfo_NS_40" vType="typeStraight" speedFactor="1.03" vaporized=""/>
    <tripinfo id="SN_24" depart="61.00" departLane="3i_0" departPos="5.10" departSpeed="0.00" departDelay="48.00" arrival="133.00" arrivalLane="4o_0" arrivalPos="189.60" arrivalSpeed="11.24" duration="72.00" routeLength="394.90" waitingTime="19.00" waitingCount="1" stopTime="0.00" timeLoss="37.10" rerouteNo="0" devices="tripinfo_SN_24" vType="typeStraight" speedFactor="0.83" vaporized=""/>
    <tripinfo id="NS_45" depart="78.00" departLane="4i_0" departPos="5.10" departSpeed="0.00" departDelay="50.00" arrival="134.00" arrivalLane="3o_0" arrivalPos="189.60" arrivalSpeed="13.43" duration="56.00" routeLength="394.90" waitingTime="5.00" waitingCount="1" stopTime="0.00" timeLoss="27.10" rerouteNo="0" devices="tripinfo_NS_45" vType="typeStraight" speedFactor="1.09" vaporized=""/>
    <tripinfo id="SN_32" depart="75.00" departLane="3i_0" departPos="5.10" departSpeed="0.00" departDelay="56.00" arrival="135.00" arrivalLane="4o_0" arrivalPos="189.60" arrivalSpeed="12.97" duration="60.00" routeLength="394.90" waitingTime="6.00" waitingCount="1" stopTime="0.00" timeLoss="30.75" rerouteNo="0" devices="tripinfo_SN_32" vType="typeStraight" speedFactor="1.01" vaporized=""/>
    <tripinfo id="SN_35" depart="83.00" departLane="3i_0" departPos="5.10" departSpeed="0.00" departDelay="63.00" arrival="136.00" arrivalLane="4o_0" arrivalPos="189.60" arrivalSpeed="12.96" duration="53.00" routeLength="394.90" waitingTime="0.00" waitingCount="0" stopTime="0.00" timeLoss="24.35" rerouteNo="0" devices="tripinfo_SN_35" vType="typeStraight" speedFactor="1.02" vaporized=""/>
    <tripinfo id="SN_42" depart="97.00" departLane="3i_0" departPos="5.10" departSpeed="0.00" departDelay="71.00" arrival="138.00" arrivalLane="4o_0" arrivalPos="189.60" arrivalSpeed="13.55" duration="41.00" routeLength="394.90" waitingTime="1.00" waitingCount="1" stopTime="0.00" timeLoss="11.97" rerouteNo="0" devices="tripinfo_SN_42" vType="typeStraight" speedFactor="1.09" vaporized=""/>
    <tripinfo id="NS_49" depart="87.00" departLane="4i_0" departPos="5.10" departSpeed="0.00" departDelay="55.00" arrival="138.00" arrivalLane="3o_0" arrivalPos="189.60" arrivalSpeed="11.49" duration="51.00" routeLength="394.90" waitingTime="0.00" waitingCount="0" stopTime="0.00" timeLoss="17.15" rerouteNo="0" devices="tripinfo_NS_49" vType="typeStraight" speedFactor="0.85" vaporized=""/>
    <tripinfo id="WE_22" depart="12.00" departLane="1i_0" departPos="5.10" departSpeed="0.00" departDelay="0.00" arrival="146.00" arrivalLane="2o_0" arrivalPos="189.60" arrivalSpeed="13.35" duration="134.00" routeLength="394.90" waitingTime="87.00" waitingCount="1" stopTime="0.00" timeLoss="104.48" rerouteNo="0" devices="tripinfo_WE_22" vType="typeStraight" speedFactor="0.98" vaporized=""/>
    <tripinfo id="WE_26" depart="17.00" departLane="1i_0" departPos="5.10" departSpeed="0.00" departDelay="2.00" arrival="148.00" arrivalLane="2o_0" arrivalPos="189.60" arrivalSpeed="12.53" duration="131.00" routeLength="394.90" waitingTime="82.00" waitingCount="1" stopTime="0.00" timeLoss="99.97" rerouteNo="0" devices="tripinfo_WE_26" vType="typeStraight" speedFactor="0.92" vaporized=""/>
    <tripinfo id="EW_27" depart="15.00" departLane="2i_0" departPos="5.10" departSpeed="0.00" departDelay="0.00" arrival="148.00" arrivalLane="1o_0" arrivalPos="189.60" arrivalSpeed="12.86" duration="133.00" routeLength="394.90" waitingTime="83.00" waitingCount="1" stopTime="0.00" timeLoss="102.10" rerouteNo="0" devices="tripinfo_EW_27" vType="typeStraight" speedFactor="0.95" vaporized=""/>
    <tripinfo id="EW_68" depart="42.00" departLane="2i_0" departPos="5.10" departSpeed="0.00" departDelay="0.00" arrival="149.00" arrivalLane="1o_0" arrivalPos="189.60" arrivalSpeed="13.87" duration="107.00" routeLength="394.90" waitingTime="58.00" waitingCount="1" stopTime="0.00" timeLoss="78.23" rerouteNo="0" devices="tripinfo_EW_68" vType="typeStraight" speedFactor="1.04" vaporized=""/>
    <tripinfo id="WE_65" depart="40.00" departLane="1i_0" departPos="5.10" departSpeed="0.00" departDelay="0.00" arrival="152.00" arrivalLane="2o_0" arrivalPos="189.60" arrivalSpeed="11.87" duration="112.00" routeLength="394.90" waitingTime="59.00" waitingCount="1" stopTime="0.00" timeLoss="79.48" rerouteNo="0" devices="tripinfo_WE_65" vType="typeStraight" speedFactor="0.88" vaporized=""/>
    <tripinfo id="EW_98" depart="64.00" departLane="2i_0" departPos="5.10" departSpeed="0.00" departDelay="0.00" arrival="152.00" arrivalLane="1o_0" arrivalPos="189.60" arrivalSpeed="13.50" duration="88.00" routeLength="394.90" waitingTime="36.00" waitingCount="1" stopTime="0.00" timeLoss="59.11" rerouteNo="0" devices="tripinfo_EW_98" vType="typeStraight" speedFactor="1.12" vaporized=""/>
    <tripinfo id="EW_109" depart="74.00" departLane="2i_0" departPos="5.10" departSpeed="0.00" departDelay="0.00" arrival="154.00" arrivalLane="1o_0" arrivalPos="189.60" arrivalSpeed="12.86" duration="80.00" routeLength="394.90" waitingTime="28.00" waitingCount="1" stopTime="0.00" timeLoss="49.95" rerouteNo="0" devices="tripinfo_EW_109" vType="typeStraight" speedFactor="0.96" vaporized=""/>
    <tripinfo id="WE_131" depart="85.00" departLane="1i_0" departPos="5.10" departSpeed="0.00" departDelay="0.00" arrival="154.00" arrivalLane="2o_0" arrivalPos="189.60" arrivalSpeed="13.61" duration="69.00" routeLength="394.90" waitingTime="17.00" waitingCount="1" stopTime="0.00" timeLoss="39.86" rerouteNo="0" devices="tripinfo_WE_131" vType="typeStraight" speedFactor="1.07" vaporized=""/>
    <tripinfo id="WE_135" depart="90.00" departLane="1i_0" departPos="5.10" departSpeed="0.00" departDelay="1.00" arrival="155.00" arrivalLane="2o_0" arrivalPos="189.60" arrivalSpeed="13.75" duration="65.00" routeLength="394.90" waitingTime="13.00" waitingCount="1" stopTime="0.00" timeLoss="36.48" rerouteNo="0" devices="tripinfo_WE_135" vType="typeStraight" speedFactor="1.01" vaporized=""/>
    <tripinfo id="WE_162" depart="113.00" departLane="1i_0" departPos="5.10" departSpeed="0.00" departDelay="0.00" arrival="157.00" arrivalLane="2o_0" arrivalPos="189.60" arrivalSpeed="13.32" duration="44.00" routeLength="394.90" waitingTime="0.00" waitingCount="0" stopTime="0.00" timeLoss="14.98" rerouteNo="0" devices="tripinfo_WE_162" vType="typeStraight" speedFactor="0.99" vaporized=""/>
    <tripinfo id="EW_170" depart="120.00" departLane="2i_0" departPos="5.10" departSpeed="0.00" departDelay="0.00" arrival="158.00" arrivalLane="1o_0" arrivalPos="189.60" arrivalSpeed="13.60" duration="38.00" routeLength="394.90" waitingTime="0.00" waitingCount="0" stopTime="0.00" timeLoss="9.08" rerouteNo="0" devices="tripinfo_EW_170" vType="typeStraight" speedFactor="1.09" vaporized=""/>
    <tripinfo id="WE_169" depart="119.00" departLane="1i_0" departPos="5.10" departSpeed="0.00" departDelay="0.00" arrival="159.00" arrivalLane="2o_0" arrivalPos="189.60" arrivalSpeed="12.75" duration="40.00" routeLength="394.90" waitingTime="0.00" waitingCount="0" stopTime="0.00" timeLoss="9.09" rerouteNo="0" devices="tripinfo_WE_169" vType="typeStraight" speedFactor="0.94" vaporized=""/>
    <tripinfo id="SW_30" depart="70.00" departLane="3i_0" departPos="5.10" departSpeed="0.00" departDelay="53.00" arrival="176.00" arrivalLane="1o_1" arrivalPos="189.60" arrivalSpeed="13.69" duration="106.00" routeLength="393.45" waitingTime="57.00" waitingCount="1" stopTime="0.00" timeLoss="76.98" rerouteNo="0" devices="tripinfo_SW_30" vType="typeTurn" speedFactor="1.18" vaporized=""/>
    <tripinfo id="NE_48" depart="82.00" departLane="4i_0" departPos="5.10" departSpeed="0.00" departDelay="51.00" arrival="177.00" arrivalLane="2o_1" arrivalPos="189.60" arrivalSpeed="11.79" duration="95.00" routeLength="393.45" waitingTime="45.00" waitingCount="2" stopTime="0.00" timeLoss="61.68" rerouteNo="0" devices="tripinfo_NE_48" vType="typeTurn" speedFactor="0.88" vaporized=""/>
    <tripinfo id="SW_33" depart="79.00" departLane="3i_0" departPos="5.10" departSpeed="0.00" departDelay="60.00" arrival="178.00" arrivalLane="1o_1" arrivalPos="189.60" arrivalSpeed="13.57" duration="99.00" routeLength="393.45" waitingTime="52.00" waitingCount="1" stopTime="0.00" timeLoss="69.76" rerouteNo="0" devices="tripinfo_SW_33" vType="typeTurn" speedFactor="1.17" vaporized=""/>
    <tripinfo id="NE_50" depart="91.00" departLane="4i_0" departPos="5.10" departSpeed="0.00" departDelay="59.00" arrival="180.00" arrivalLane="2o_1" arrivalPos="189.60" arrivalSpeed="11.70" duration="89.00" routeLength="393.45" waitingTime="36.00" waitingCount="1" stopTime="0.00" timeLoss="54.22" rerouteNo="0" devices="tripinfo_NE_50" vType="typeTurn" speedFactor="0.85" vaporized=""/>
    <tripinfo id="SW_39" depart="88.00" departLane="3i_0" departPos="5.10" departSpeed="0.00" departDelay="65.00" arrival="181.00" arrivalLane="1o_1" arrivalPos="189.60" arrivalSpeed="12.17" duration="93.00" routeLength="393.45" waitingTime="41.00" waitingCount="1" stopTime="0.00" timeLoss="60.25" rerouteNo="0" devices="tripinfo_SW_39" vType="typeTurn" speedFactor="0.90" vaporized=""/>
    <tripinfo id="NE_55" depart="95.00" departLane="4i_0" departPos="5.10" departSpeed="0.00" departDelay="60.00" arrival="181.00" arrivalLane="2o_1" arrivalPos="189.60" arrivalSpeed="12.31" duration="86.00" routeLength="393.45" waitingTime="36.00" waitingCount="2" stopTime="0.00" timeLoss="56.78" rerouteNo="0" devices="tripinfo_NE_55" vType="typeTurn" speedFactor="1.00" vaporized=""/>
    <tripinfo id="SW_41" depart="93.00" departLane="3i_0" departPos="5.10" departSpeed="0.00" departDelay="68.00" arrival="182.00" arrivalLane="1o_1" arrivalPos="189.60" arrivalSpeed="13.24" duration="89.00" routeLength="393.45" waitingTime="39.00" waitingCount="1" stopTime="0.00" timeLoss="58.61" rerouteNo="0" devices="tripinfo_SW_41" vType="typeTurn" speedFactor="0.96" vaporized=""/>
    <tripinfo id="NE_57" depart="100.00" departLane="4i_0" departPos="5.10" departSpeed="0.00" departDelay="64.00" arrival="183.00" arrivalLane="2o_1" arrivalPos="189.60" arrivalSpeed="13.76" duration="83.00" routeLength="393.45" waitingTime="32.00" waitingCount="1" stopTime="0.00" timeLoss="53.70" rerouteNo="0" devices="tripinfo_NE_57" vType="typeTurn" speedFactor="1.14" vaporized=""/>
    <tripinfo id="SW_44" depart="107.00" departLane="3i_0" departPos="5.10" departSpeed="0.00" departDelay="80.00" arrival="184.00" arrivalLane="1o_1" arrivalPos="189.60" arrivalSpeed="13.42" duration="77.00" routeLength="393.45" waitingTime="27.00" waitingCount="1" stopTime="0.00" timeLoss="47.62" rerouteNo="0" devices="tripinfo_SW_44" vType="typeTurn" speedFactor="1.04" vaporized=""/>
    <tripinfo id="NE_59" depart="105.00" departLane="4i_0" departPos="5.10" departSpeed="0.00" departDelay="68.00" arrival="185.00" arrivalLane="2o_1" arrivalPos="189.60" arrivalSpeed="13.38" duration="80.00" routeLength="393.45" waitingTime="30.00" waitingCount="1" stopTime="0.00" timeLoss="49.11" rerouteNo="0" devices="tripinfo_NE_59" vType="typeTurn" speedFactor="0.97" vaporized=""/>
    <tripinfo id="NE_62" depart="114.00" departLane="4i_0" departPos="5.10" departSpeed="0.00" departDelay="76.00" arrival="186.00" arrivalLane="2o_1" arrivalPos="189.60" arrivalSpeed="13.54" duration="72.00" routeLength="393.45" waitingTime="22.00" waitingCount="1" stopTime="0.00" timeLoss="42.85" rerouteNo="0" devices="tripinfo_NE_62" vType="typeTurn" speedFactor="1.02" vaporized=""/>
    <tripinfo id="SW_47" depart="116.00" departLane="3i_0" departPos="5.10" departSpeed="0.00" departDelay="87.00" arrival="187.00" arrivalLane="1o_1" arrivalPos="189.60" arrivalSpeed="12.51" duration="71.00" routeLength="393.45" waitingTime="19.00" waitingCount="1" stopTime="0.00" timeLoss="38.59" rerouteNo="0" devices="tripinfo_SW_47" vType="typeTurn" speedFactor="0.90" vaporized=""/>
    <tripinfo id="SW_54" depart="130.00" departLane="3i_0" departPos="5.10" departSpeed="0.00" departDelay="96.00" arrival="189.00" arrivalLane="1o_1" arrivalPos="189.60" arrivalSpeed="13.50" duration="59.00" routeLength="393.45" waitingTime="8.00" waitingCount="1" stopTime="0.00" timeLoss="29.64" rerouteNo="0" devices="tripinfo_SW_54" vType="typeTurn" speedFactor="1.00" vaporized=""/>
    <tripinfo id="NE_64" depart="123.00" departLane="4i_0" departPos="5.10" departSpeed="0.00" departDelay="84.00" arrival="189.00" arrivalLane="2o_1" arrivalPos="189.60" arrivalSpeed="12.74" duration="66.00" routeLength="393.45" waitingTime="14.00" waitingCount="1" stopTime="0.00" timeLoss="34.23" rerouteNo="0" devices="tripinfo_NE_64" vType="typeTurn" speedFactor="0.94" vaporized=""/>
    <tripinfo id="NE_70" depart="132.00" departLane="4i_0" departPos="5.10" departSpeed="0.00" departDelay="88.00" arrival="190.00" arrivalLane="2o_1" arrivalPos="189.60" arrivalSpeed="13.55" duration="58.00" routeLength="393.45" waitingTime="7.00" waitingCount="1" stopTime="0.00" timeLoss="28.78" rerouteNo="0" devices="tripinfo_NE_70" vType="typeTurn" speedFactor="1.02" vaporized=""/>
    <tripinfo id="SW_56" depart="134.00" departLane="3i_0" departPos="5.10" departSpeed="0.00" departDelay="99.00" arrival="192.00" arrivalLane="1o_1" arrivalPos="189.60" arrivalSpeed="12.17" duration="58.00" routeLength="393.45" waitingTime="6.00" waitingCount="2" stopTime="0.00" timeLoss="25.07" rerouteNo="0" devices="tripinfo_SW_56" vType="typeTurn" speedFactor="0.90" vaporized=""/>
    <tripinfo id="NE_73" depart="142.00" departLane="4i_0" departPos="5.10" departSpeed="0.00" departDelay="94.00" arrival="192.00" arrivalLane="2o_1" arrivalPos="189.60" arrivalSpeed="13.89" duration="50.00" routeLength="393.45" waitingTime="0.00" waitingCount="0" stopTime="0.00" timeLoss="20.47" rerouteNo="0" devices="tripinfo_NE_73" vType="typeTurn" speedFactor="1.06" vaporized=""/>
    <tripinfo id="SW_66" depart="148.00" departLane="3i_0" departPos="5.10" departSpeed="0.00" departDelay="107.00" arrival="194.00" arrivalLane="1o_1" arrivalPos="189.60" arrivalSpeed="12.45" duration="46.00" routeLength="393.45" waitingTime="0.00" waitingCount="0" stopTime="0.00" timeLoss="13.18" rerouteNo="0" devices="tripinfo_SW_66" vType="typeTurn" speedFactor="0.91" vaporized=""/>
    <tripinfo id="SW_69" depart="153.00" departLane="3i_0" departPos="5.10" departSpeed="0.00" departDelay="110.00" arrival="195.00" arrivalLane="1o_1" arrivalPos="189.60" arrivalSpeed="12.86" duration="42.00" routeLength="393.45" waitingTime="1.00" waitingCount="1" stopTime="0.00" timeLoss="12.76" rerouteNo="0" devices="tripinfo_SW_69" vType="typeTurn" speedFactor="1.02" vaporized=""/>
    <tripinfo id="NE_77" depart="146.00" departLane="4i_0" departPos="5.10" departSpeed="0.00" departDelay="96.00" arrival="195.00" arrivalLane="2o_1" arrivalPos="189.60" arrivalSpeed="13.41" duration="49.00" routeLength="393.45" waitingTime="0.00" waitingCount="0" stopTime="0.00" timeLoss="18.60" rerouteNo="0" devices="tripinfo_NE_77" vType="typeTurn" speedFactor="0.98" vaporized=""/>
    <tripinfo id="NE_81" depart="156.00" departLane="4i_0" departPos="5.10" departSpeed="0.00" departDelay="103.00" arrival="197.00" arrivalLane="2o_1" arrivalPos="189.60" arrivalSpeed="13.38" duration="41.00" routeLength="393.45" waitingTime="0.00" waitingCount="0" stopTime="0.00" timeLoss="10.84" rerouteNo="0" devices="tripinfo_NE_81" vType="typeTurn" speedFactor="1.00" vaporized=""/>
    <tripinfo id="ES_78" depart="51.00" departLane="2i_0" departPos="5.10" departSpeed="0.00" departDelay="0.00" arrival="206.00" arrivalLane="3o_1" arrivalPos="189.60" arrivalSpeed="13.70" duration="155.00" routeLength="393.45" waitingTime="108.00" waitingCount="1" stopTime="0.00" timeLoss="125.70" rerouteNo="0" devices="tripinfo_ES_78" vType="typeTurn" speedFactor="1.01" vaporized=""/>
    <tripinfo id="WN_92" depart="61.00" departLane="1i_0" departPos="5.10" departSpeed="0.00" departDelay="0.00" arrival="207.00" arrivalLane="4o_1" arrivalPos="189.60" arrivalSpeed="11.50" duration="146.00" routeLength="393.45" waitingTime="97.00" waitingCount="1" stopTime="0.00" timeLoss="111.09" rerouteNo="0" devices="tripinfo_WN_92" vType="typeTurn" speedFactor="0.83" vaporized=""/>