<?xml version="1.0" encoding="UTF-8"?>

<!-- generated on Sun Jan  3 14:30:47 2021 by Eclipse SUMO sumo Version 1.7.0
<configuration xmlns:xsi="http://www.w3.org/2001/XMLSchema-instance" xsi:noNamespaceSchemaLocation="http://sumo.dlr.de/xsd/sumoConfiguration.xsd">

    <input>
        <net-file value="/home/hjj/exp_test_v2/sumo_data/single_cross.net.xml"/>
        <route-files value="/home/hjj/exp_test_v2/sumo_data/routfile/time_vary.rou.xml"/>
        <additional-files value="/home/hjj/exp_test_v2/sumo_data/single_cross.add.xml"/>
    </input>

    <output>
        <tripinfo-output value="tripinfo.xml"/>
    </output>

    <time>
        <begin value="0"/>
    </time>

    <report>
        <verbose value="true"/>
        <no-warnings value="true"/>
        <duration-log.statistics value="true"/>
        <no-step-log value="true"/>
    </report>

    <traci_server>
        <remote-port value="51775"/>
    </traci_server>

</configuration>
-->

<tripinfos xmlns:xsi="http://www.w3.org/2001/XMLSchema-instance" xsi:noNamespaceSchemaLocation="http://sumo.dlr.de/xsd/tripinfo_file.xsd">
    <tripinfo id="EW_27" depart="15.00" departLane="2i_0" departPos="5.10" departSpeed="0.00" departDelay="0.00" arrival="54.00" arrivalLane="1o_0" arrivalPos="189.60" arrivalSpeed="12.70" duration="39.00" routeLength="394.90" waitingTime="0.00" waitingCount="0" stopTime="0.00" timeLoss="8.41" rerouteNo="0" devices="tripinfo_EW_27" vType="typeStraight" speedFactor="0.95" vaporized=""/>
    <tripinfo id="WE_5" depart="1.00" departLane="1i_0" departPos="5.10" departSpeed="0.00" departDelay="0.00" arrival="58.00" arrivalLane="2o_0" arrivalPos="189.60" arrivalSpeed="11.43" duration="57.00" routeLength="394.90" waitingTime="6.00" waitingCount="1" stopTime="0.00" timeLoss="22.71" rerouteNo="0" devices="tripinfo_WE_5" vType="typeStraight" speedFactor="0.83" vaporized=""/>
    <tripinfo id="WE_22" depart="12.00" departLane="1i_0" departPos="5.10" departSpeed="0.00" departDelay="0.00" arrival="60.00" arrivalLane="2o_0" arrivalPos="189.60" arrivalSpeed="12.60" duration="48.00" routeLength="394.90" waitingTime="0.00" waitingCount="0" stopTime="0.00" timeLoss="18.45" rerouteNo="0" devices="tripinfo_WE_22" vType="typeStraight" speedFactor="0.98" vaporized=""/>
    <tripinfo id="WE_26" depart="17.00" departLane="1i_0" departPos="5.10" departSpeed="0.00" departDelay="2.00" arrival="62.00" arrivalLane="2o_0" arrivalPos="189.60" arrivalSpeed="12.40" duration="45.00" routeLength="394.90" waitingTime="0.00" waitingCount="0" stopTime="0.00" timeLoss="13.25" rerouteNo="0" devices="tripinfo_WE_26" vType="typeStraight" speedFactor="0.92" vaporized=""/>
    <tripinfo id="EW_68" depart="42.00" departLane="2i_0" departPos="5.10" departSpeed="0.00" departDelay="0.00" arrival="80.00" arrivalLane="1o_0" arrivalPos="189.60" arrivalSpeed="13.62" duration="38.00" routeLength="394.90" waitingTime="0.00" waitingCount="0" stopTime="0.00" timeLoss="8.82" rerouteNo="0" devices="tripinfo_EW_68" vType="typeStraight" speedFactor="1.04" vaporized=""/>
    <tripinfo id="WE_65" depart="40.00" departLane="1i_0" departPos="5.10" departSpeed="0.00" departDelay="0.00" arrival="81.00" arrivalLane="2o_0" arrivalPos="189.60" arrivalSpeed="12.22" duration="41.00" routeLength="394.90" waitingTime="0.00" waitingCount="0" stopTime="0.00" timeLoss="8.64" rerouteNo="0" devices="tripinfo_WE_65" vType="typeStraight" speedFactor="0.88" vaporized=""/>
    <tripinfo id="EW_98" depart="64.00" departLane="2i_0" departPos="5.10" departSpeed="0.00" departDelay="0.00" arrival="102.00" arrivalLane="1o_0" arrivalPos="189.60" arrivalSpeed="13.61" duration="38.00" routeLength="394.90" waitingTime="0.00" waitingCount="0" stopTime="0.00" timeLoss="9.38" rerouteNo="0" devices="tripinfo_EW_98" vType="typeStraight" speedFactor="1.12" vaporized=""/>
    <tripinfo id="NS_6" depart="9.00" departLane="4i_0" departPos="5.10" departSpeed="0.00" departDelay="7.00" arrival="116.00" arrivalLane="3o_0" arrivalPos="189.60" arrivalSpeed="13.66" duration="107.00" routeLength="394.90" waitingTime="60.00" waitingCount="1" stopTime="0.00" timeLoss="78.53" rerouteNo="0" devices="tripinfo_NS_6" vType="typeStraight" speedFactor="1.05" vaporized=""/>
    <tripinfo id="SN_1" depart="0.00" departLane="3i_0" departPos="5.10" departSpeed="0.00" departDelay="0.00" arrival="117.00" arrivalLane="4o_0" arrivalPos="189.60" arrivalSpeed="12.89" duration="117.00" routeLength="394.90" waitingTime="69.00" waitingCount="1" stopTime="0.00" timeLoss="85.95" rerouteNo="0" devices="tripinfo_SN_1" vType="typeStraight" speedFactor="0.94" vaporized=""/>
    <tripinfo id="NS_14" depart="18.00" departLane="4i_0" departPos="5.10" departSpeed="0.00" departDelay="11.00" arrival="118.00" arrivalLane="3o_0" arrivalPos="189.60" arrivalSpeed="13.45" duration="100.00" routeLength="394.90" waitingTime="51.00" waitingCount="1" stopTime="0.00" timeLoss="71.20" rerouteNo="0" devices="tripinfo_NS_14" vType="typeStraight" speedFactor="0.99" vaporized=""/>
    <tripinfo id="SN_4" depart="9.00" departLane="3i_0" departPos="5.10" departSpeed="0.00" departDelay="8.00" arrival="119.00" arrivalLane="4o_0" arrivalPos="189.60" arrivalSpeed="13.55" duration="110.00" routeLength="394.90" waitingTime="60.00" waitingCount="1" stopTime="0.00" timeLoss="81.27" rerouteNo="0" devices="tripinfo_SN_4" vType="typeStraight" speedFactor="1.03" vaporized=""/>
    <tripinfo id="NS_19" depart="27.00" departLane="4i_0" departPos="5.10" departSpeed="0.00" departDelay="16.00" arrival="120.00" arrivalLane="3o_0" arrivalPos="189.60" arrivalSpeed="13.56" duration="93.00" routeLength="394.90" waitingTime="44.00" waitingCount="1" stopTime="0.00" timeLoss="64.36" rerouteNo="0" devices="tripinfo_NS_19" vType="typeStraight" speedFactor="1.16" vaporized=""/>
    <tripinfo id="SN_8" depart="19.00" departLane="3i_0" departPos="5.10" departSpeed="0.00" departDelay="16.00" arrival="121.00" arrivalLane="4o_0" arrivalPos="189.60" arrivalSpeed="13.01" duration="102.00" routeLength="394.90" waitingTime="51.00" waitingCount="1" stopTime="0.00" timeLoss="71.57" rerouteNo="0" devices="tripinfo_SN_8" vType="typeStraight" speedFactor="0.94" vaporized=""/>
    <tripinfo id="SN_11" depart="29.00" departLane="3i_0" departPos="5.10" departSpeed="0.00" departDelay="24.00" arrival="123.00" arrivalLane="4o_0" arrivalPos="189.60" arrivalSpeed="13.82" duration="94.00" routeLength="394.90" waitingTime="45.00" waitingCount="1" stopTime="0.00" timeLoss="65.01" rerouteNo="0" devices="tripinfo_SN_11" vType="typeStraight" speedFactor="1.03" vaporized=""/>
    <tripinfo id="NS_23" depart="36.00" departLane="4i_0" departPos="5.10" departSpeed="0.00" departDelay="23.00" arrival="124.00" arrivalLane="3o_0" arrivalPos="189.60" arrivalSpeed="11.97" duration="88.00" routeLength="394.90" waitingTime="36.00" waitingCount="1" stopTime="0.00" timeLoss="55.28" rerouteNo="0" devices="tripinfo_NS_23" vType="typeStraight" speedFactor="0.89" vaporized=""/>
    <tripinfo id="SN_15" depart="42.00" departLane="3i_0" departPos="5.10" departSpeed="0.00" departDelay="35.00" arrival="125.00" arrivalLane="4o_0" arrivalPos="189.60" arrivalSpeed="12.69" duration="83.00" routeLength="394.90" waitingTime="31.00" waitingCount="1" stopTime="0.00" timeLoss="52.10" rerouteNo="0" devices="tripinfo_SN_15" vType="typeStraight" speedFactor="0.93" vaporized=""/>
    <tripinfo id="NS_29" depart="46.00" departLane="4i_0" departPos="5.10" departSpeed="0.00" departDelay="29.00" arrival="125.00" arrivalLane="3o_0" arrivalPos="189.60" arrivalSpeed="12.69" duration="79.00" routeLength="394.90" waitingTime="27.00" waitingCount="1" stopTime="0.00" timeLoss="48.38" rerouteNo="0" devices="tripinfo_NS_29" vType="typeStraight" speedFactor="0.93" vaporized=""/>
    <tripinfo id="NS_34" depart="54.00" departLane="4i_0" departPos="5.10" departSpeed="0.00" departDelay="34.00" arrival="127.00" arrivalLane="3o_0" arrivalPos="189.60" arrivalSpeed="13.47" duration="73.00" routeLength="394.90" waitingTime="22.00" waitingCount="1" stopTime="0.00" timeLoss="43.91" rerouteNo="0" devices="tripinfo_NS_34" vType="typeStraight" speedFactor="0.99" vaporized=""/>
    <tripinfo id="SN_16" depart="47.00" departLane="3i_0" departPos="5.10" departSpeed="0.00" departDelay="39.00" arrival="128.00" arrivalLane="4o_0" arrivalPos="189.60" arrivalSpeed="11.92" duration="81.00" routeLength="394.90" waitingTime="27.00" waitingCount="1" stopTime="0.00" timeLoss="47.88" rerouteNo="0" devices="tripinfo_SN_16" vType="typeStraight" speedFactor="0.88" vaporized=""/>
    <tripinfo id="SN_21" depart="56.00" departLane="3i_0" departPos="5.10" departSpeed="0.00" departDelay="45.00" arrival="129.00" arrivalLane="4o_0" arrivalPos="189.60" arrivalSpeed="12.84" duration="73.00" routeLength="394.90" waitingTime="21.00" waitingCount="1" stopTime="0.00" timeLoss="44.43" rerouteNo="0" devices="tripinfo_SN_21" vType="typeStraight" speedFactor="1.01" vaporized=""/>
    <tripinfo id="NS_36" depart="59.00" departLane="4i_0" departPos="5.10" departSpeed="0.00" departDelay="38.00" arrival="129.00" arrivalLane="3o_0" arrivalPos="189.60" arrivalSpeed="13.17" duration="70.00" routeLength="394.90" waitingTime="18.00" waitingCount="1" stopTime="0.00" timeLoss="39.91" rerouteNo="0" devices="tripinfo_NS_36" vType="typeStraight" speedFactor="0.97" vaporized=""/>
    <tripinfo id="NS_38" depart="69.00" departLane="4i_0" departPos="5.10" departSpeed="0.00" departDelay="47.00" arrival="130.00" arrivalLane="3o_0" arrivalPos="189.60" arrivalSpeed="13.44" duration="61.00" routeLength="394.90" waitingTime="10.00" waitingCount="1" stopTime="0.00" timeLoss="32.43" rerouteNo="0" devices="tripinfo_NS_38" vType="typeStraight" speedFactor="1.10" vaporized=""/>
    <tripinfo id="SN_24" depart="61.00" departLane="3i_0" departPos="5.10" departSpeed="0.00" departDelay="48.00" arrival="132.00" arrivalLane="4o_0" arrivalPos="189.60" arrivalSpeed="11.15" duration="71.00" routeLength="394.90" waitingTime="18.00" waitingCount="1" stopTime="0.00" timeLoss="36.10" rerouteNo="0" devices="tripinfo_SN_24" vType="typeStraight" speedFactor="0.83" vaporized=""/>
    <tripinfo id="NS_40" depart="74.00" departLane="4i_0" departPos="5.10" departSpeed="0.00" departDelay="50.00" arrival="132.00" arrivalLane="3o_0" arrivalPos="189.60" arrivalSpeed="13.50" duration="58.00" routeLength="394.90" waitingTime="8.00" waitingCount="1" stopTime="0.00" timeLoss="29.06" rerouteNo="0" devices="tripinfo_NS_40" vType="typeStraight" speedFactor="1.03" vaporized=""/>
    <tripinfo id="SN_32" depart="75.00" departLane="3i_0" departPos="5.10" departSpeed="0.00" departDelay="56.00" arrival="134.00" arrivalLane="4o_0" arrivalPos="189.60" arrivalSpeed="12.47" duration="59.00" routeLength="394.90" waitingTime="6.00" waitingCount="1" stopTime="0.00" timeLoss="29.86" rerouteNo="0" devices="tripinfo_SN_32" vType="typeStraight" speedFactor="1.01" vaporized=""/>
    <tripinfo id="NS_45" depart="78.00" departLane="4i_0" departPos="5.10" departSpeed="0.00" departDelay="50.00" arrival="134.00" arrivalLane="3o_0" arrivalPos="189.60" arrivalSpeed="13.43" duration="56.00" routeLength="394.90" waitingTime="4.00" waitingCount="1" stopTime="0.00" timeLoss="26.79" rerouteNo="0" devices="tripinfo_NS_45" vType="typeStraight" speedFactor="1.09" vaporized=""/>
    <tripinfo id="SN_35" depart="84.00" departLane="3i_0" departPos="5.10" departSpeed="0.00" departDelay="64.00" arrival="135.00" arrivalLane="4o_0" arrivalPos="189.60" arrivalSpeed="12.36" duration="51.00" routeLength="394.90" waitingTime="0.00" waitingCount="0" stopTime="0.00" timeLoss="22.45" rerouteNo="0" devices="tripinfo_SN_35" vType="typeStraight" speedFactor="1.02" vaporized=""/>
    <tripinfo id="NS_49" depart="87.00" departLane="4i_0" departPos="5.10" departSpeed="0.00" departDelay="55.00" arrival="138.00" arrivalLane="3o_0" arrivalPos="189.60" arrivalSpeed="11.49" duration="51.00" routeLength="394.90" waitingTime="0.00" waitingCount="0" stopTime="0.00" timeLoss="16.92" rerouteNo="0" devices="tripinfo_NS_49" vType="typeStraight" speedFactor="0.85" vaporized=""/>
    <tripinfo id="EW_109" depart="74.00" departLane="2i_0" departPos="5.10" departSpeed="0.00" departDelay="0.00" arrival="147.00" arrivalLane="1o_0" arrivalPos="189.60" arrivalSpeed="12.91" duration="73.00" routeLength="394.90" waitingTime="25.00" waitingCount="1" stopTime="0.00" timeLoss="42.93" rerouteNo="0" devices="tripinfo_EW_109" vType="typeStraight" speedFactor="0.96" vaporized=""/>
    <tripinfo id="WE_131" depart="85.00" departLane="1i_0" departPos="5.10" departSpeed="0.00" departDelay="0.00" arrival="147.00" arrivalLane="2o_0" arrivalPos="189.60" arrivalSpeed="13.51" duration="62.00" routeLength="394.90" waitingTime="14.00" waitingCount="1" stopTime="0.00" timeLoss="32.98" rerouteNo="0" devices="tripinfo_WE_131" vType="typeStraight" speedFactor="1.07" vaporized=""/>
    <tripinfo id="WE_135" depart="89.00" departLane="1i_0" departPos="5.10" departSpeed="0.00" departDelay="0.00" arrival="149.00" arrivalLane="2o_0" arrivalPos="189.60" arrivalSpeed="13.70" duration="60.00" routeLength="394.90" waitingTime="10.00" waitingCount="1" stopTime="0.00" timeLoss="31.55" rerouteNo="0" devices="tripinfo_WE_135" vType="typeStraight" speedFactor="1.01" vaporized=""/>
    <tripinfo id="WE_162" depart="113.00" departLane="1i_0" departPos="5.10" departSpeed="0.00" departDelay="0.00" arrival="151.00" arrivalLane="2o_0" arrivalPos="189.60" arrivalSpeed="13.65" duration="38.00" routeLength="394.90" waitingTime="0.00" waitingCount="0" stopTime="0.00" timeLoss="9.22" rerouteNo="0" devices="tripinfo_WE_162" vType="typeStraight" speedFactor="0.99" vaporized=""/>
    <tripinfo id="WE_169" depart="119.00" departLane="1i_0" departPos="5.10" departSpeed="0.00" departDelay="0.00" arrival="158.00" arrivalLane="2o_0" arrivalPos="189.60" arrivalSpeed="12.75" duration="39.00" routeLength="394.90" waitingTime="0.00" waitingCount="0" stopTime="0.00" timeLoss="8.49" rerouteNo="0" devices="tripinfo_WE_169" vType="typeStraight" speedFactor="0.94" vaporized=""/>
    <tripinfo id="EW_170" depart="120.00" departLane="2i_0" departPos="5.10" departSpeed="0.00" departDelay="0.00" arrival="158.00" arrivalLane="1o_0" arrivalPos="189.60" arrivalSpeed="13.51" duration="38.00" routeLength="394.90" waitingTime="0.00" waitingCount="0" stopTime="0.00" timeLoss="9.31" rerouteNo="0" devices="tripinfo_EW_170" vType="typeStraight" speedFactor="1.09" vaporized=""/>
    <tripinfo id="EW_204" depart="146.00" departLane="2i_0" departPos="5.10" departSpeed="0.00" departDelay="0.00" arrival="184.00" arrivalLane="1o_0" arrivalPos="189.60" arrivalSpeed="13.47" duration="38.00" routeLength="394.90" waitingTime="0.00" waitingCount="0" stopTime="0.00" timeLoss="9.22" rerouteNo="0" devices="tripinfo_EW_204" vType="typeStraight" speedFactor="1.07" vaporized=""/>
    <tripinfo id="WN_52" depart="33.00" departLane="1i_0" departPos="5.10" departSpeed="0.00" departDelay="0.00" arrival="206.00" arrivalLane="4o_1" arrivalPos="189.60" arrivalSpeed="13.81" duration="173.00" routeLength="393.45" waitingTime="126.00" waitingCount="1" stopTime="0.00" timeLoss="143.47" rerouteNo="0" devices="tripinfo_WN_52" vType="typeTurn" speedFactor="1.02" vaporized=""/>
    <tripinfo id="ES_78" depart="51.00" departLane="2i_0" departPos="5.10" departSpeed="0.00" departDelay="0.00" arrival="206.00" arrivalLane="3o_1" arrivalPos="189.60" arrivalSpeed="13.70" duration="155.00" routeLength="393.45" waitingTime="108.00" waitingCount="1" stopTime="0.00" timeLoss="125.83" rerouteNo="0" devices="tripinfo_ES_78" vType="typeTurn" speedFactor="1.01" vaporized=""/>
    <tripinfo id="WN_92" depart="61.00" departLane="1i_0" departPos="5.10" departSpeed="0.00" departDelay="0.00" arrival="209.00" arrivalLane="4o_1" arrivalPos="189.60" arrivalSpeed="11.14" duration="148.00" routeLength="393.45" waitingTime="96.00" waitingCount="1" stopTime="0.00" timeLoss="113.18" rerouteNo="0" devices="tripinfo_WN_92" vType="typeTurn" speedFactor="0.83" vaporized=""/>
    <tripinfo id="ES_104" depart="68.00" departLane="2i_0" departPos="5.10" departSpeed="0.00" departDelay="1.00" arrival="209.00" arrivalLane="3o_1" arrivalPos="189.60" arrivalSpeed="12.19" duration="141.00" routeLength="393.45" waitingTime="92.00" waitingCount="1" stopTime="0.00" timeLoss="108.59" rerouteNo="0" devices="tripinfo_ES_104" vType="typeTurn" speedFactor="0.89" vaporized=""/>
    <tripinfo id="WN_95" depart="66.00" departLane="1i_0" departPos="5.10" departSpeed="0.00" departDelay="4.00" arrival="211.00" arrivalLane="4o_1" arrivalPos="189.60" arrivalSpeed="13.34" duration="145.00" routeLength="393.45" waitingTime="95.00" waitingCount="1" stopTime="0.00" timeLoss="115.62" rerouteNo="0" devices="tripinfo_WN_95" vType="typeTurn" speedFactor="1.06" vaporized=""/>
    <tripinfo id="WN_107" depart="73.00" departLane="1i_0" departPos="5.10" departSpeed="0.00" departDelay="0.00" arrival="213.00" arrivalLane="4o_1" arrivalPos="189.60" arrivalSpeed="13.45" duration="140.00" routeLength="393.45" waitingTime="90.00" waitingCount="1" stopTime="0.00" timeLoss="110.18" rerouteNo="0" devices="tripinfo_WN_107" vType="typeTurn" speedFactor="1.03" vaporized=""/>
    <tripinfo id="ES_239" depart="173.00" departLane="2i_0" departPos="5.10" departSpeed="0.00" departDelay="0.00" arrival="213.00" arrivalLane="3o_1" arrivalPos="189.60" arrivalSpeed="13.73" duration="40.00" routeLength="393.45" waitingTime="0.00" waitingCount="0" stopTime="0.00" timeLoss="10.78" rerouteNo="0" devices="tripinfo_ES_239" vType="typeTurn" speedFactor="1.13" vaporized=""/>
    <tripinfo id="WN_120" depart="79.00" departLane="1i_0" departPos="5.10" departSpeed="0.00" departDelay="0.00" arrival="215.00" arrivalLane="4o_1" arrivalPos="189.60" arrivalSpeed="12.63" duration="136.00" routeLength="393.45" waitingTime="84.00" waitingCount="1" stopTime="0.00" timeLoss="104.36" rerouteNo="0" devices="tripinfo_WN_120" vType="typeTurn" speedFactor="0.94" vaporized=""/>
    <tripinfo id="WN_176" depart="126.00" departLane="1i_0" departPos="5.10" departSpeed="0.00" departDelay="0.00" arrival="216.00" arrivalLane="4o_1" arrivalPos="189.60" arrivalSpeed="13.20" duration="90.00" routeLength="393.45" waitingTime="39.00" waitingCount="1" stopTime="0.00" timeLoss="61.16" rerouteNo="0" devices="tripinfo_WN_176" vType="typeTurn" speedFactor="1.09" vaporized=""/>
    <tripinfo id="WN_192" depart="140.00" departLane="1i_0" departPos="5.10" departSpeed="0.00" departDelay="0.00" arrival="218.00" arrivalLane="4o_1" arrivalPos="189.60" arrivalSpeed="13.51" duration="78.00" routeLength="393.45" waitingTime="26.00" waitingCount="1" stopTime="0.00" timeLoss="48.89" rerouteNo="0" devices="tripinfo_WN_192" vType="typeTurn" speedFactor="1.10" vaporized=""/>
    <tripinfo id="WN_195" depart="145.00" departLane="1i_0" departPos="5.10" departSpeed="0.00" departDelay="4.00" arrival="223.00" arrivalLane="4o_1" arrivalPos="189.60" arrivalSpeed="11.62" duration="78.00" routeLength="393.45" waitingTime="23.00" waitingCount="1" stopTime="0.00" timeLoss="43.15" rerouteNo="0" devices="tripinfo_WN_195" vType="typeTurn" speedFactor="0.84" vaporized=""/>
    <tripinfo id="WN_200" depart="150.00" departLane="1i_0" departPos="5.10" departSpeed="0.00" departDelay="5.00" arrival="225.00" arrivalLane="4o_1" arrivalPos="189.60" arrivalSpeed="12.71" duration="75.00" routeLength="393.45" waitingTime="21.00" waitingCount="1" stopTime="0.00" timeLoss="43.88" rerouteNo="0" devices="tripinfo_WN_200" vType="typeTurn" speedFactor="0.95" vaporized=""/>
    <tripinfo id="WN_234" depart="171.00" departLane="1i_0" departPos="5.10" departSpeed="0.00" departDelay="0.00" arrival="227.00" arrivalLane="4o_1" arrivalPos="189.60" arrivalSpeed="12.57" duration="56.00" routeLength="393.45" waitingTime="0.00" waitingCount="0" stopTime="0.00" timeLoss="23.38" rerouteNo="0" devices="tripinfo_WN_234" vType="typeTurn" speedFactor="0.91" vaporized=""/>
    <tripinfo id="WN_248" depart="178.00" departLane="1i_0" departPos="5.10" departSpeed="0.00" departDelay="0.00" arrival="228.00" arrivalLane="4o_1" arrivalPos="189.60" arrivalSpeed="13.51" duration="50.00" routeLength="393.45" waitingTime="0.00" waitingCount="0" stopTime="0.00" timeLoss="20.98" rerouteNo="0" devices="tripinfo_WN_248" vType="typeTurn" speedFactor="1.14" vaporized=""/>
    <tripinfo id="SW_2" depart="4.00" departLane="3i_0" departPos="5.10" departSpeed="0.00" departDelay="4.00" arrival="236.00" arrivalLane="1o_1" arrivalPos="189.60" arrivalSpeed="13.89" duration="232.00" routeLength="393.45" waitingTime="184.00" waitingCount="1" stopTime="0.00" timeLoss="203.01" rerouteNo="0" devices="tripinfo_SW_2" vType="typeTurn" speedFactor="1.01" vaporized=""/>
    <tripinfo id="NE_0" depart="0.00" departLane="4i_0" departPos="5.10" departSpeed="0.00" departDelay="0.00" arrival="237.00" arrivalLane="2o_1" arrivalPos="189.60" arrivalSpeed="13.56" duration="237.00" routeLength="393.45" waitingTime="188.00" waitingCount="1" stopTime="0.00" timeLoss="207.25" rerouteNo="0" devices="tripinfo_NE_0" vType="typeTurn" speedFactor="1.06" vaporized=""/>
    <tripinfo id="NE_3" depart="4.00" departLane="4i_0" departPos="5.10" departSpeed="0.00" departDelay="3.00" arrival="238.00" arrivalLane="2o_1" arrivalPos="189.60" arrivalSpeed="13.74" duration="234.00" routeLength="393.45" waitingTime="185.00" waitingCount="1" stopTime="0.00" timeLoss="204.93" rerouteNo="0" devices="tripinfo_NE_3" vType="typeTurn" speedFactor="1.08" vaporized=""/>
    <tripinfo id="SW_7" depart="14.00" departLane="3i_0" departPos="5.10" departSpeed="0.00" departDelay="12.00" arrival="240.00" arrivalLane="1o_1" arrivalPos="189.60" arrivalSpeed="12.13" duration="226.00" routeLength="393.45" waitingTime="175.00" waitingCount="1" stopTime="0.00" timeLoss="192.56" rerouteNo="0" devices="tripinfo_SW_7" vType="typeTurn" speedFactor="0.89" vaporized=""/>
    <tripinfo id="NE_10" depart="13.00" departLane="4i_0" departPos="5.10" departSpeed="0.00" departDelay="8.00" arrival="241.00" arrivalLane="2o_1" arrivalPos="189.60" arrivalSpeed="13.71" duration="228.00" routeLength="393.45" waitingTime="178.00" waitingCount="1" stopTime="0.00" timeLoss="198.62" rerouteNo="0" devices="tripinfo_NE_10" vType="typeTurn" speedFactor="1.09" vaporized=""/>
    <tripinfo id="SW_9" depart="24.00" departLane="3i_0" departPos="5.10" departSpeed="0.00" departDelay="21.00" arrival="242.00" arrivalLane="1o_1" arrivalPos="189.60" arrivalSpeed="11.62" duration="218.00" routeLength="393.45" waitingTime="165.00" waitingCount="1" stopTime="0.00" timeLoss="183.65" rerouteNo="0" devices="tripinfo_SW_9" vType="typeTurn" speedFactor="0.86" vaporized=""/>
    <tripinfo id="SW_12" depart="33.00" departLane="3i_0" departPos="5.10" departSpeed="0.00" departDelay="28.00" arrival="243.00" arrivalLane="1o_1" arrivalPos="189.60" arrivalSpeed="12.66" duration="210.00" routeLength="393.45" waitingTime="159.00" waitingCount="1" stopTime="0.00" timeLoss="181.06" rerouteNo="0" devices="tripinfo_SW_12" vType="typeTurn" speedFactor="1.05" vaporized=""/>
    <tripinfo id="NE_18" depart="23.00" departLane="4i_0" departPos="5.10" departSpeed="0.00" departDelay="13.00" arrival="243.00" arrivalLane="2o_1" arrivalPos="189.60" arrivalSpeed="13.00" duration="220.00" routeLength="393.45" waitingTime="170.00" waitingCount="1" stopTime="0.00" timeLoss="188.49" rerouteNo="0" devices="tripinfo_NE_18" vType="typeTurn" speedFactor="0.94" vaporized=""/>
    <tripinfo id="SW_13" depart="38.00" departLane="3i_0" departPos="5.10" departSpeed="0.00" departDelay="32.00" arrival="245.00" arrivalLane="1o_1" arrivalPos="189.60" arrivalSpeed="13.21" duration="207.00" routeLength="393.45" waitingTime="157.00" waitingCount="1" stopTime="0.00" timeLoss="177.76" rerouteNo="0" devices="tripinfo_SW_13" vType="typeTurn" speedFactor="1.12" vaporized=""/>
    <tripinfo id="NE_20" depart="32.00" departLane="4i_0" departPos="5.10" departSpeed="0.00" departDelay="21.00" arrival="245.00" arrivalLane="2o_1" arrivalPos="189.60" arrivalSpeed="13.43" duration="213.00" routeLength="393.45" waitingTime="162.00" waitingCount="1" stopTime="0.00" timeLoss="183.07" rerouteNo="0" devices="tripinfo_NE_20" vType="typeTurn" speedFactor="1.02" vaporized=""/>
    <tripinfo id="SW_17" depart="52.00" departLane="3i_0" departPos="5.10" departSpeed="0.00" departDelay="44.00" arrival="247.00" arrivalLane="1o_1" arrivalPos="189.60" arrivalSpeed="12.67" duration="195.00" routeLength="393.45" waitingTime="143.00" waitingCount="1" stopTime="0.00" timeLoss="163.31" rerouteNo="0" devices="tripinfo_SW_17" vType="typeTurn" speedFactor="0.94" vaporized=""/>
    <tripinfo id="NE_25" depart="41.00" departLane="4i_0" departPos="5.10" departSpeed="0.00" departDelay="27.00" arrival="248.00" arrivalLane="2o_1" arrivalPos="189.60" arrivalSpeed="11.96" duration="207.00" routeLength="393.45" waitingTime="154.00" waitingCount="1" stopTime="0.00" timeLoss="173.56" rerouteNo="0" devices="tripinfo_NE_25" vType="typeTurn" speedFactor="0.87" vaporized=""/>
    <tripinfo id="SW_28" depart="65.00" departLane="3i_0" departPos="5.10" departSpeed="0.00" departDelay="49.00" arrival="248.00" arrivalLane="1o_1" arrivalPos="189.60" arrivalSpeed="13.87" duration="183.00" routeLength="393.45" waitingTime="132.00" waitingCount="1" stopTime="0.00" timeLoss="154.22" rerouteNo="0" devices="tripinfo_SW_28" vType="typeTurn" speedFactor="1.13" vaporized=""/>
    <tripinfo id="SW_30" depart="70.00" departLane="3i_0" departPos="5.10" departSpeed="0.00" departDelay="53.00" arrival="250.00" arrivalLane="1o_1" arrivalPos="189.60" arrivalSpeed="13.61" duration="180.00" routeLength="393.45" waitingTime="129.00" waitingCount="1" stopTime="0.00" timeLoss="151.21" rerouteNo="0" devices="tripinfo_SW_30" vType="typeTurn" speedFactor="1.18" vaporized=""/>
    <tripinfo id="NE_31" depart="50.00" departLane="4i_0" departPos="5.10" departSpeed="0.00" departDelay="32.00" arrival="250.00" arrivalLane="2o_1" arrivalPos="189.60" arrivalSpeed="13.68" duration="200.00" routeLength="393.45" waitingTime="147.00" waitingCount="1" stopTime="0.00" timeLoss="170.59" rerouteNo="0" devices="tripinfo_NE_31" vType="typeTurn" speedFactor="1.15" vaporized=""/>
    <tripinfo id="NE_37" depart="63.00" departLane="4i_0" departPos="5.10" departSpeed="0.00" departDelay="42.00" arrival="251.00" arrivalLane="2o_1" arrivalPos="189.60" arrivalSpeed="13.48" duration="188.00" routeLength="393.45" waitingTime="136.00" waitingCount="2" stopTime="0.00" timeLoss="159.19" rerouteNo="0" devices="tripinfo_NE_37" vType="typeTurn" speedFactor="1.18" vaporized=""/>
    <tripinfo id="SW_33" depart="80.00" departLane="3i_0" departPos="5.10" departSpeed="0.00" departDelay="61.00" arrival="252.00" arrivalLane="1o_1" arrivalPos="189.60" arrivalSpeed="13.44" duration="172.00" routeLength="393.45" waitingTime="121.00" waitingCount="1" stopTime="0.00" timeLoss="142.98" rerouteNo="0" devices="tripinfo_SW_33" vType="typeTurn" speedFactor="1.17" vaporized=""/>
    <tripinfo id="NE_48" depart="82.00" departLane="4i_0" departPos="5.10" departSpeed="0.00" departDelay="51.00" arrival="255.00" arrivalLane="2o_1" arrivalPos="189.60" arrivalSpeed="12.01" duration="173.00" routeLength="393.45" waitingTime="118.00" waitingCount="2" stopTime="0.00" timeLoss="139.26" rerouteNo="0" devices="tripinfo_NE_48" vType="typeTurn" speedFactor="0.88" vaporized=""/>
    <tripinfo id="SW_39" depart="88.00" departLane="3i_0" departPos="5.10" departSpeed="0.00" departDelay="65.00" arrival="256.00" arrivalLane="1o_1" arrivalPos="189.60" arrivalSpeed="12.12" duration="168.00" routeLength="393.45" waitingTime="114.00" waitingCount="1" stopTime="0.00" timeLoss="135.88" rerouteNo="0" devices="tripinfo_SW_39" vType="typeTurn" speedFactor="0.90" vaporized=""/>
    <tripinfo id="NE_50" depart="91.00" departLane="4i_0" departPos="5.10" departSpeed="0.00" departDelay="59.00" arrival="257.00" arrivalLane="2o_1" arrivalPos="189.60" arrivalSpeed="11.54" duration="166.00" routeLength="393.45" waitingTime="111.00" waitingCount="1" stopTime="0.00" timeLoss="131.98" rerouteNo="0" devices="tripinfo_NE_50" vType="typeTurn" speedFactor="0.85" vaporized=""/>
    <tripinfo id="NE_55" depart="96.00" departLane="4i_0" departPos="5.10" departSpeed="0.00" departDelay="61.00" arrival="259.00" arrivalLane="2o_1" arrivalPos="189.60" arrivalSpeed="13.20" duration="163.00" routeLength="393.45" waitingTime="108.00" waitingCount="1" stopTime="0.00" timeLoss="133.35" rerouteNo="0" devices="tripinfo_NE_55" vType="typeTurn" speedFactor="1.00" vaporized=""/>
    <tripinfo id="SN_42" depart="97.00" departLane="3i_0" departPos="5.10" departSpeed="0.00" departDelay="71.00" arrival="266.00" arrivalLane="4o_0" arrivalPos="189.60" arrivalSpeed="13.81" duration="169.00" routeLength="394.90" waitingTime="120.00" waitingCount="1" stopTime="0.00" timeLoss="140.50" rerouteNo="0" devices="tripinfo_SN_42" vType="typeStraight" speedFactor="1.09" vaporized=""/>
    <tripinfo id="NS_61" depart="110.00" departLane="4i_0" departPos="5.10" departSpeed="0.00" departDelay="72.00" arrival="266.00" arrivalLane="3o_0" arrivalPos="189.60" arrivalSpeed="13.59" duration="156.00" routeLength="394.90" waitingTime="107.00" waitingCount="1" stopTime="0.00" timeLoss="127.41" rerouteNo="0" devices="tripinfo_NS_61" vType="typeStraight" speedFactor="1.12" vaporized=""/>
    <tripinfo id="NS_63" depart="120.00" departLane="4i_0" departPos="5.10" departSpeed="0.00" departDelay="81.00" arrival="268.00" arrivalLane="3o_0" arrivalPos="189.60" arrivalSpeed="13.39" duration="148.00" routeLength="394.90" waitingTime="98.00" waitingCount="1" stopTime="0.00" timeLoss="118.99" rerouteNo="0" devices="tripinfo_NS_63" vType="typeStraight" speedFactor="0.99" vaporized=""/>